+ 0.106293 40 41 tcp 40 ------- 1 0.0 41.0 0 0
- 0.106293 40 41 tcp 40 ------- 1 0.0 41.0 0 0
+ 0.106293 40 41 tcp 40 ------- 2 1.0 41.1 0 1
+ 0.106293 40 41 tcp 40 ------- 3 2.0 41.2 0 2
+ 0.106293 40 41 tcp 40 ------- 4 3.0 41.3 0 3
+ 0.106293 40 41 tcp 40 ------- 5 4.0 41.4 0 4
+ 0.106293 40 41 tcp 40 ------- 6 5.0 41.5 0 5
+ 0.106293 40 41 tcp 40 ------- 7 6.0 41.6 0 6
+ 0.106293 40 41 tcp 40 ------- 8 7.0 41.7 0 7
+ 0.106293 40 41 tcp 40 ------- 9 8.0 41.8 0 8
+ 0.106293 40 41 tcp 40 ------- 10 9.0 41.9 0 9
+ 0.106293 40 41 tcp 40 ------- 11 10.0 41.10 0 10
+ 0.106293 40 41 tcp 40 ------- 12 11.0 41.11 0 11
+ 0.106293 40 41 tcp 40 ------- 13 12.0 41.12 0 12
+ 0.106293 40 41 tcp 40 ------- 14 13.0 41.13 0 13
+ 0.106293 40 41 tcp 40 ------- 15 14.0 41.14 0 14
+ 0.106293 40 41 tcp 40 ------- 16 15.0 41.15 0 15
+ 0.106293 40 41 tcp 40 ------- 17 16.0 41.16 0 16
+ 0.106293 40 41 tcp 40 ------- 18 17.0 41.17 0 17
+ 0.106293 40 41 tcp 40 ------- 19 18.0 41.18 0 18
+ 0.106293 40 41 tcp 40 ------- 20 19.0 41.19 0 19
+ 0.106293 40 41 tcp 40 ------- 21 20.0 41.20 0 20
+ 0.106293 40 41 tcp 40 ------- 22 21.0 41.21 0 21
+ 0.106293 40 41 tcp 40 ------- 23 22.0 41.22 0 22
+ 0.106293 40 41 tcp 40 ------- 24 23.0 41.23 0 23
+ 0.106293 40 41 tcp 40 ------- 25 24.0 41.24 0 24
+ 0.106293 40 41 tcp 40 ------- 26 25.0 41.25 0 25
+ 0.106293 40 41 tcp 40 ------- 27 26.0 41.26 0 26
+ 0.106293 40 41 tcp 40 ------- 28 27.0 41.27 0 27
+ 0.106293 40 41 tcp 40 ------- 29 28.0 41.28 0 28
+ 0.106293 40 41 tcp 40 ------- 30 29.0 41.29 0 29
+ 0.106293 40 41 tcp 40 ------- 31 30.0 41.30 0 30
+ 0.106293 40 41 tcp 40 ------- 32 31.0 41.31 0 31
+ 0.106293 40 41 tcp 40 ------- 33 32.0 41.32 0 32
+ 0.106293 40 41 tcp 40 ------- 34 33.0 41.33 0 33
+ 0.106293 40 41 tcp 40 ------- 35 34.0 41.34 0 34
+ 0.106293 40 41 tcp 40 ------- 36 35.0 41.35 0 35
+ 0.106293 40 41 tcp 40 ------- 37 36.0 41.36 0 36
+ 0.106293 40 41 tcp 40 ------- 38 37.0 41.37 0 37
+ 0.106293 40 41 tcp 40 ------- 39 38.0 41.38 0 38
+ 0.106293 40 41 tcp 40 ------- 40 39.0 41.39 0 39
- 0.106399 40 41 tcp 40 ------- 2 1.0 41.1 0 1
- 0.106506 40 41 tcp 40 ------- 3 2.0 41.2 0 2
- 0.106613 40 41 tcp 40 ------- 4 3.0 41.3 0 3
- 0.106719 40 41 tcp 40 ------- 5 4.0 41.4 0 4
- 0.106826 40 41 tcp 40 ------- 6 5.0 41.5 0 5
- 0.106933 40 41 tcp 40 ------- 7 6.0 41.6 0 6
- 0.107039 40 41 tcp 40 ------- 8 7.0 41.7 0 7
- 0.107146 40 41 tcp 40 ------- 9 8.0 41.8 0 8
- 0.107253 40 41 tcp 40 ------- 10 9.0 41.9 0 9
- 0.107359 40 41 tcp 40 ------- 11 10.0 41.10 0 10
- 0.107466 40 41 tcp 40 ------- 12 11.0 41.11 0 11
- 0.107573 40 41 tcp 40 ------- 13 12.0 41.12 0 12
- 0.107679 40 41 tcp 40 ------- 14 13.0 41.13 0 13
- 0.107786 40 41 tcp 40 ------- 15 14.0 41.14 0 14
- 0.107893 40 41 tcp 40 ------- 16 15.0 41.15 0 15
- 0.107999 40 41 tcp 40 ------- 17 16.0 41.16 0 16
- 0.108106 40 41 tcp 40 ------- 18 17.0 41.17 0 17
- 0.108213 40 41 tcp 40 ------- 19 18.0 41.18 0 18
- 0.108319 40 41 tcp 40 ------- 20 19.0 41.19 0 19
- 0.108426 40 41 tcp 40 ------- 21 20.0 41.20 0 20
- 0.108533 40 41 tcp 40 ------- 22 21.0 41.21 0 21
- 0.108639 40 41 tcp 40 ------- 23 22.0 41.22 0 22
- 0.108746 40 41 tcp 40 ------- 24 23.0 41.23 0 23
- 0.108853 40 41 tcp 40 ------- 25 24.0 41.24 0 24
- 0.108959 40 41 tcp 40 ------- 26 25.0 41.25 0 25
- 0.109066 40 41 tcp 40 ------- 27 26.0 41.26 0 26
- 0.109173 40 41 tcp 40 ------- 28 27.0 41.27 0 27
- 0.109279 40 41 tcp 40 ------- 29 28.0 41.28 0 28
- 0.109386 40 41 tcp 40 ------- 30 29.0 41.29 0 29
- 0.109493 40 41 tcp 40 ------- 31 30.0 41.30 0 30
- 0.109599 40 41 tcp 40 ------- 32 31.0 41.31 0 31
- 0.109706 40 41 tcp 40 ------- 33 32.0 41.32 0 32
- 0.109813 40 41 tcp 40 ------- 34 33.0 41.33 0 33
- 0.109919 40 41 tcp 40 ------- 35 34.0 41.34 0 34
- 0.110026 40 41 tcp 40 ------- 36 35.0 41.35 0 35
- 0.110133 40 41 tcp 40 ------- 37 36.0 41.36 0 36
- 0.110239 40 41 tcp 40 ------- 38 37.0 41.37 0 37
- 0.110346 40 41 tcp 40 ------- 39 38.0 41.38 0 38
- 0.110453 40 41 tcp 40 ------- 40 39.0 41.39 0 39
r 0.206399 40 41 tcp 40 ------- 1 0.0 41.0 0 0
r 0.206506 40 41 tcp 40 ------- 2 1.0 41.1 0 1
r 0.206613 40 41 tcp 40 ------- 3 2.0 41.2 0 2
r 0.206719 40 41 tcp 40 ------- 4 3.0 41.3 0 3
r 0.206826 40 41 tcp 40 ------- 5 4.0 41.4 0 4
r 0.206933 40 41 tcp 40 ------- 6 5.0 41.5 0 5
r 0.207039 40 41 tcp 40 ------- 7 6.0 41.6 0 6
r 0.207146 40 41 tcp 40 ------- 8 7.0 41.7 0 7
r 0.207253 40 41 tcp 40 ------- 9 8.0 41.8 0 8
r 0.207359 40 41 tcp 40 ------- 10 9.0 41.9 0 9
r 0.207466 40 41 tcp 40 ------- 11 10.0 41.10 0 10
r 0.207573 40 41 tcp 40 ------- 12 11.0 41.11 0 11
r 0.207679 40 41 tcp 40 ------- 13 12.0 41.12 0 12
r 0.207786 40 41 tcp 40 ------- 14 13.0 41.13 0 13
r 0.207893 40 41 tcp 40 ------- 15 14.0 41.14 0 14
r 0.207999 40 41 tcp 40 ------- 16 15.0 41.15 0 15
r 0.208106 40 41 tcp 40 ------- 17 16.0 41.16 0 16
r 0.208213 40 41 tcp 40 ------- 18 17.0 41.17 0 17
r 0.208319 40 41 tcp 40 ------- 19 18.0 41.18 0 18
r 0.208426 40 41 tcp 40 ------- 20 19.0 41.19 0 19
r 0.208533 40 41 tcp 40 ------- 21 20.0 41.20 0 20
r 0.208639 40 41 tcp 40 ------- 22 21.0 41.21 0 21
r 0.208746 40 41 tcp 40 ------- 23 22.0 41.22 0 22
r 0.208853 40 41 tcp 40 ------- 24 23.0 41.23 0 23
r 0.208959 40 41 tcp 40 ------- 25 24.0 41.24 0 24
r 0.209066 40 41 tcp 40 ------- 26 25.0 41.25 0 25
r 0.209173 40 41 tcp 40 ------- 27 26.0 41.26 0 26
r 0.209279 40 41 tcp 40 ------- 28 27.0 41.27 0 27
r 0.209386 40 41 tcp 40 ------- 29 28.0 41.28 0 28
r 0.209493 40 41 tcp 40 ------- 30 29.0 41.29 0 29
r 0.209599 40 41 tcp 40 ------- 31 30.0 41.30 0 30
r 0.209706 40 41 tcp 40 ------- 32 31.0 41.31 0 31
r 0.209813 40 41 tcp 40 ------- 33 32.0 41.32 0 32
r 0.209919 40 41 tcp 40 ------- 34 33.0 41.33 0 33
r 0.210026 40 41 tcp 40 ------- 35 34.0 41.34 0 34
r 0.210133 40 41 tcp 40 ------- 36 35.0 41.35 0 35
r 0.210239 40 41 tcp 40 ------- 37 36.0 41.36 0 36
r 0.210346 40 41 tcp 40 ------- 38 37.0 41.37 0 37
r 0.210453 40 41 tcp 40 ------- 39 38.0 41.38 0 38
r 0.210559 40 41 tcp 40 ------- 40 39.0 41.39 0 39
+ 0.507389 40 41 tcp 1064 ------- 1 0.0 41.0 1 80
- 0.507389 40 41 tcp 1064 ------- 1 0.0 41.0 1 80
+ 0.507496 40 41 tcp 1064 ------- 2 1.0 41.1 1 82
+ 0.507602 40 41 tcp 1064 ------- 3 2.0 41.2 1 84
+ 0.507709 40 41 tcp 1064 ------- 4 3.0 41.3 1 86
+ 0.507816 40 41 tcp 1064 ------- 5 4.0 41.4 1 88
+ 0.507922 40 41 tcp 1064 ------- 6 5.0 41.5 1 90
+ 0.508029 40 41 tcp 1064 ------- 7 6.0 41.6 1 92
+ 0.508136 40 41 tcp 1064 ------- 8 7.0 41.7 1 94
+ 0.50824 40 41 tcp 1064 ------- 1 0.0 41.0 2 81
+ 0.508242 40 41 tcp 1064 ------- 9 8.0 41.8 1 96
+ 0.508347 40 41 tcp 1064 ------- 2 1.0 41.1 2 83
+ 0.508349 40 41 tcp 1064 ------- 10 9.0 41.9 1 98
+ 0.508454 40 41 tcp 1064 ------- 3 2.0 41.2 2 85
+ 0.508456 40 41 tcp 1064 ------- 11 10.0 41.10 1 100
+ 0.50856 40 41 tcp 1064 ------- 4 3.0 41.3 2 87
+ 0.508562 40 41 tcp 1064 ------- 12 11.0 41.11 1 102
+ 0.508667 40 41 tcp 1064 ------- 5 4.0 41.4 2 89
+ 0.508669 40 41 tcp 1064 ------- 13 12.0 41.12 1 104
+ 0.508774 40 41 tcp 1064 ------- 6 5.0 41.5 2 91
+ 0.508776 40 41 tcp 1064 ------- 14 13.0 41.13 1 106
+ 0.50888 40 41 tcp 1064 ------- 7 6.0 41.6 2 93
+ 0.508882 40 41 tcp 1064 ------- 15 14.0 41.14 1 108
+ 0.508987 40 41 tcp 1064 ------- 8 7.0 41.7 2 95
+ 0.508989 40 41 tcp 1064 ------- 16 15.0 41.15 1 110
+ 0.509094 40 41 tcp 1064 ------- 9 8.0 41.8 2 97
+ 0.509096 40 41 tcp 1064 ------- 17 16.0 41.16 1 112
+ 0.5092 40 41 tcp 1064 ------- 10 9.0 41.9 2 99
+ 0.509202 40 41 tcp 1064 ------- 18 17.0 41.17 1 114
+ 0.509307 40 41 tcp 1064 ------- 11 10.0 41.10 2 101
+ 0.509309 40 41 tcp 1064 ------- 19 18.0 41.18 1 116
+ 0.509414 40 41 tcp 1064 ------- 12 11.0 41.11 2 103
+ 0.509416 40 41 tcp 1064 ------- 20 19.0 41.19 1 118
+ 0.50952 40 41 tcp 1064 ------- 13 12.0 41.12 2 105
+ 0.509522 40 41 tcp 1064 ------- 21 20.0 41.20 1 120
+ 0.509627 40 41 tcp 1064 ------- 14 13.0 41.13 2 107
+ 0.509629 40 41 tcp 1064 ------- 22 21.0 41.21 1 122
+ 0.509734 40 41 tcp 1064 ------- 15 14.0 41.14 2 109
+ 0.509736 40 41 tcp 1064 ------- 23 22.0 41.22 1 124
+ 0.50984 40 41 tcp 1064 ------- 16 15.0 41.15 2 111
+ 0.509842 40 41 tcp 1064 ------- 24 23.0 41.23 1 126
+ 0.509947 40 41 tcp 1064 ------- 17 16.0 41.16 2 113
+ 0.509949 40 41 tcp 1064 ------- 25 24.0 41.24 1 128
+ 0.510054 40 41 tcp 1064 ------- 18 17.0 41.17 2 115
+ 0.510056 40 41 tcp 1064 ------- 26 25.0 41.25 1 130
+ 0.51016 40 41 tcp 1064 ------- 19 18.0 41.18 2 117
+ 0.510162 40 41 tcp 1064 ------- 27 26.0 41.26 1 132
- 0.510226 40 41 tcp 1064 ------- 2 1.0 41.1 1 82
+ 0.510267 40 41 tcp 1064 ------- 20 19.0 41.19 2 119
+ 0.510269 40 41 tcp 1064 ------- 28 27.0 41.27 1 134
+ 0.510374 40 41 tcp 1064 ------- 21 20.0 41.20 2 121
+ 0.510376 40 41 tcp 1064 ------- 29 28.0 41.28 1 136
+ 0.51048 40 41 tcp 1064 ------- 22 21.0 41.21 2 123
+ 0.510482 40 41 tcp 1064 ------- 30 29.0 41.29 1 138
+ 0.510587 40 41 tcp 1064 ------- 23 22.0 41.22 2 125
+ 0.510589 40 41 tcp 1064 ------- 31 30.0 41.30 1 140
+ 0.510694 40 41 tcp 1064 ------- 24 23.0 41.23 2 127
+ 0.510696 40 41 tcp 1064 ------- 32 31.0 41.31 1 142
+ 0.5108 40 41 tcp 1064 ------- 25 24.0 41.24 2 129
+ 0.510802 40 41 tcp 1064 ------- 33 32.0 41.32 1 144
+ 0.510907 40 41 tcp 1064 ------- 26 25.0 41.25 2 131
+ 0.510909 40 41 tcp 1064 ------- 34 33.0 41.33 1 146
+ 0.511014 40 41 tcp 1064 ------- 27 26.0 41.26 2 133
+ 0.511016 40 41 tcp 1064 ------- 35 34.0 41.34 1 148
+ 0.51112 40 41 tcp 1064 ------- 28 27.0 41.27 2 135
+ 0.511122 40 41 tcp 1064 ------- 36 35.0 41.35 1 150
+ 0.511227 40 41 tcp 1064 ------- 29 28.0 41.28 2 137
+ 0.511229 40 41 tcp 1064 ------- 37 36.0 41.36 1 152
+ 0.511334 40 41 tcp 1064 ------- 30 29.0 41.29 2 139
+ 0.511336 40 41 tcp 1064 ------- 38 37.0 41.37 1 154
+ 0.51144 40 41 tcp 1064 ------- 31 30.0 41.30 2 141
+ 0.511442 40 41 tcp 1064 ------- 39 38.0 41.38 1 156
+ 0.511547 40 41 tcp 1064 ------- 32 31.0 41.31 2 143
+ 0.511549 40 41 tcp 1064 ------- 40 39.0 41.39 1 158
+ 0.511654 40 41 tcp 1064 ------- 33 32.0 41.32 2 145
+ 0.51176 40 41 tcp 1064 ------- 34 33.0 41.33 2 147
+ 0.511867 40 41 tcp 1064 ------- 35 34.0 41.34 2 149
+ 0.511974 40 41 tcp 1064 ------- 36 35.0 41.35 2 151
+ 0.51208 40 41 tcp 1064 ------- 37 36.0 41.36 2 153
+ 0.512187 40 41 tcp 1064 ------- 38 37.0 41.37 2 155
+ 0.512294 40 41 tcp 1064 ------- 39 38.0 41.38 2 157
+ 0.5124 40 41 tcp 1064 ------- 40 39.0 41.39 2 159
- 0.513064 40 41 tcp 1064 ------- 3 2.0 41.2 1 84
- 0.515901 40 41 tcp 1064 ------- 4 3.0 41.3 1 86
- 0.518738 40 41 tcp 1064 ------- 5 4.0 41.4 1 88
- 0.521576 40 41 tcp 1064 ------- 6 5.0 41.5 1 90
- 0.524413 40 41 tcp 1064 ------- 7 6.0 41.6 1 92
- 0.52725 40 41 tcp 1064 ------- 8 7.0 41.7 1 94
- 0.530088 40 41 tcp 1064 ------- 1 0.0 41.0 2 81
- 0.532925 40 41 tcp 1064 ------- 9 8.0 41.8 1 96
- 0.535762 40 41 tcp 1064 ------- 2 1.0 41.1 2 83
- 0.5386 40 41 tcp 1064 ------- 10 9.0 41.9 1 98
- 0.541437 40 41 tcp 1064 ------- 3 2.0 41.2 2 85
- 0.544274 40 41 tcp 1064 ------- 11 10.0 41.10 1 100
- 0.547112 40 41 tcp 1064 ------- 4 3.0 41.3 2 87
- 0.549949 40 41 tcp 1064 ------- 12 11.0 41.11 1 102
- 0.552786 40 41 tcp 1064 ------- 5 4.0 41.4 2 89
- 0.555624 40 41 tcp 1064 ------- 13 12.0 41.12 1 104
- 0.558461 40 41 tcp 1064 ------- 6 5.0 41.5 2 91
- 0.561298 40 41 tcp 1064 ------- 14 13.0 41.13 1 106
- 0.564136 40 41 tcp 1064 ------- 7 6.0 41.6 2 93
- 0.566973 40 41 tcp 1064 ------- 15 14.0 41.14 1 108
- 0.56981 40 41 tcp 1064 ------- 8 7.0 41.7 2 95
- 0.572648 40 41 tcp 1064 ------- 16 15.0 41.15 1 110
- 0.575485 40 41 tcp 1064 ------- 9 8.0 41.8 2 97
- 0.578322 40 41 tcp 1064 ------- 17 16.0 41.16 1 112
- 0.58116 40 41 tcp 1064 ------- 10 9.0 41.9 2 99
- 0.583997 40 41 tcp 1064 ------- 18 17.0 41.17 1 114
- 0.586834 40 41 tcp 1064 ------- 11 10.0 41.10 2 101
- 0.589672 40 41 tcp 1064 ------- 19 18.0 41.18 1 116
- 0.592509 40 41 tcp 1064 ------- 12 11.0 41.11 2 103
- 0.595346 40 41 tcp 1064 ------- 20 19.0 41.19 1 118
- 0.598184 40 41 tcp 1064 ------- 13 12.0 41.12 2 105
- 0.601021 40 41 tcp 1064 ------- 21 20.0 41.20 1 120
- 0.603858 40 41 tcp 1064 ------- 14 13.0 41.13 2 107
- 0.606696 40 41 tcp 1064 ------- 22 21.0 41.21 1 122
- 0.609533 40 41 tcp 1064 ------- 15 14.0 41.14 2 109
r 0.610226 40 41 tcp 1064 ------- 1 0.0 41.0 1 80
- 0.61237 40 41 tcp 1064 ------- 23 22.0 41.22 1 124
r 0.613064 40 41 tcp 1064 ------- 2 1.0 41.1 1 82
- 0.615208 40 41 tcp 1064 ------- 16 15.0 41.15 2 111
r 0.615901 40 41 tcp 1064 ------- 3 2.0 41.2 1 84
- 0.618045 40 41 tcp 1064 ------- 24 23.0 41.23 1 126
r 0.618738 40 41 tcp 1064 ------- 4 3.0 41.3 1 86
- 0.620882 40 41 tcp 1064 ------- 17 16.0 41.16 2 113
r 0.621576 40 41 tcp 1064 ------- 5 4.0 41.4 1 88
- 0.62372 40 41 tcp 1064 ------- 25 24.0 41.24 1 128
r 0.624413 40 41 tcp 1064 ------- 6 5.0 41.5 1 90
- 0.626557 40 41 tcp 1064 ------- 18 17.0 41.17 2 115
r 0.62725 40 41 tcp 1064 ------- 7 6.0 41.6 1 92
- 0.629394 40 41 tcp 1064 ------- 26 25.0 41.25 1 130
r 0.630088 40 41 tcp 1064 ------- 8 7.0 41.7 1 94
- 0.632232 40 41 tcp 1064 ------- 19 18.0 41.18 2 117
r 0.632925 40 41 tcp 1064 ------- 1 0.0 41.0 2 81
- 0.635069 40 41 tcp 1064 ------- 27 26.0 41.26 1 132
r 0.635762 40 41 tcp 1064 ------- 9 8.0 41.8 1 96
- 0.637906 40 41 tcp 1064 ------- 20 19.0 41.19 2 119
r 0.6386 40 41 tcp 1064 ------- 2 1.0 41.1 2 83
- 0.640744 40 41 tcp 1064 ------- 28 27.0 41.27 1 134
r 0.641437 40 41 tcp 1064 ------- 10 9.0 41.9 1 98
- 0.643581 40 41 tcp 1064 ------- 21 20.0 41.20 2 121
r 0.644274 40 41 tcp 1064 ------- 3 2.0 41.2 2 85
- 0.646418 40 41 tcp 1064 ------- 29 28.0 41.28 1 136
r 0.647112 40 41 tcp 1064 ------- 11 10.0 41.10 1 100
- 0.649256 40 41 tcp 1064 ------- 22 21.0 41.21 2 123
r 0.649949 40 41 tcp 1064 ------- 4 3.0 41.3 2 87
- 0.652093 40 41 tcp 1064 ------- 30 29.0 41.29 1 138
r 0.652786 40 41 tcp 1064 ------- 12 11.0 41.11 1 102
- 0.65493 40 41 tcp 1064 ------- 23 22.0 41.22 2 125
r 0.655624 40 41 tcp 1064 ------- 5 4.0 41.4 2 89
- 0.657768 40 41 tcp 1064 ------- 31 30.0 41.30 1 140
r 0.658461 40 41 tcp 1064 ------- 13 12.0 41.12 1 104
- 0.660605 40 41 tcp 1064 ------- 24 23.0 41.23 2 127
r 0.661298 40 41 tcp 1064 ------- 6 5.0 41.5 2 91
- 0.663442 40 41 tcp 1064 ------- 32 31.0 41.31 1 142
r 0.664136 40 41 tcp 1064 ------- 14 13.0 41.13 1 106
- 0.66628 40 41 tcp 1064 ------- 25 24.0 41.24 2 129
r 0.666973 40 41 tcp 1064 ------- 7 6.0 41.6 2 93
- 0.669117 40 41 tcp 1064 ------- 33 32.0 41.32 1 144
r 0.66981 40 41 tcp 1064 ------- 15 14.0 41.14 1 108
- 0.671954 40 41 tcp 1064 ------- 26 25.0 41.25 2 131
r 0.672648 40 41 tcp 1064 ------- 8 7.0 41.7 2 95
- 0.674792 40 41 tcp 1064 ------- 34 33.0 41.33 1 146
r 0.675485 40 41 tcp 1064 ------- 16 15.0 41.15 1 110
- 0.677629 40 41 tcp 1064 ------- 27 26.0 41.26 2 133
r 0.678322 40 41 tcp 1064 ------- 9 8.0 41.8 2 97
- 0.680466 40 41 tcp 1064 ------- 35 34.0 41.34 1 148
r 0.68116 40 41 tcp 1064 ------- 17 16.0 41.16 1 112
- 0.683304 40 41 tcp 1064 ------- 28 27.0 41.27 2 135
r 0.683997 40 41 tcp 1064 ------- 10 9.0 41.9 2 99
- 0.686141 40 41 tcp 1064 ------- 36 35.0 41.35 1 150
r 0.686834 40 41 tcp 1064 ------- 18 17.0 41.17 1 114
- 0.688978 40 41 tcp 1064 ------- 29 28.0 41.28 2 137
r 0.689672 40 41 tcp 1064 ------- 11 10.0 41.10 2 101
- 0.691816 40 41 tcp 1064 ------- 37 36.0 41.36 1 152
r 0.692509 40 41 tcp 1064 ------- 19 18.0 41.18 1 116
- 0.694653 40 41 tcp 1064 ------- 30 29.0 41.29 2 139
r 0.695346 40 41 tcp 1064 ------- 12 11.0 41.11 2 103
- 0.69749 40 41 tcp 1064 ------- 38 37.0 41.37 1 154
r 0.698184 40 41 tcp 1064 ------- 20 19.0 41.19 1 118
- 0.700328 40 41 tcp 1064 ------- 31 30.0 41.30 2 141
r 0.701021 40 41 tcp 1064 ------- 13 12.0 41.12 2 105
- 0.703165 40 41 tcp 1064 ------- 39 38.0 41.38 1 156
r 0.703858 40 41 tcp 1064 ------- 21 20.0 41.20 1 120
- 0.706002 40 41 tcp 1064 ------- 32 31.0 41.31 2 143
r 0.706696 40 41 tcp 1064 ------- 14 13.0 41.13 2 107
- 0.70884 40 41 tcp 1064 ------- 40 39.0 41.39 1 158
r 0.709533 40 41 tcp 1064 ------- 22 21.0 41.21 1 122
- 0.711677 40 41 tcp 1064 ------- 33 32.0 41.32 2 145
r 0.71237 40 41 tcp 1064 ------- 15 14.0 41.14 2 109
- 0.714514 40 41 tcp 1064 ------- 34 33.0 41.33 2 147
r 0.715208 40 41 tcp 1064 ------- 23 22.0 41.22 1 124
- 0.717352 40 41 tcp 1064 ------- 35 34.0 41.34 2 149
r 0.718045 40 41 tcp 1064 ------- 16 15.0 41.15 2 111
- 0.720189 40 41 tcp 1064 ------- 36 35.0 41.35 2 151
r 0.720882 40 41 tcp 1064 ------- 24 23.0 41.23 1 126
- 0.723026 40 41 tcp 1064 ------- 37 36.0 41.36 2 153
r 0.72372 40 41 tcp 1064 ------- 17 16.0 41.16 2 113
- 0.725864 40 41 tcp 1064 ------- 38 37.0 41.37 2 155
r 0.726557 40 41 tcp 1064 ------- 25 24.0 41.24 1 128
- 0.728701 40 41 tcp 1064 ------- 39 38.0 41.38 2 157
r 0.729394 40 41 tcp 1064 ------- 18 17.0 41.17 2 115
- 0.731538 40 41 tcp 1064 ------- 40 39.0 41.39 2 159
r 0.732232 40 41 tcp 1064 ------- 26 25.0 41.25 1 130
r 0.735069 40 41 tcp 1064 ------- 19 18.0 41.18 2 117
r 0.737906 40 41 tcp 1064 ------- 27 26.0 41.26 1 132
r 0.740744 40 41 tcp 1064 ------- 20 19.0 41.19 2 119
r 0.743581 40 41 tcp 1064 ------- 28 27.0 41.27 1 134
r 0.746418 40 41 tcp 1064 ------- 21 20.0 41.20 2 121
r 0.749256 40 41 tcp 1064 ------- 29 28.0 41.28 1 136
r 0.752093 40 41 tcp 1064 ------- 22 21.0 41.21 2 123
r 0.75493 40 41 tcp 1064 ------- 30 29.0 41.29 1 138
r 0.757768 40 41 tcp 1064 ------- 23 22.0 41.22 2 125
r 0.760605 40 41 tcp 1064 ------- 31 30.0 41.30 1 140
r 0.763442 40 41 tcp 1064 ------- 24 23.0 41.23 2 127
r 0.76628 40 41 tcp 1064 ------- 32 31.0 41.31 1 142
r 0.769117 40 41 tcp 1064 ------- 25 24.0 41.24 2 129
r 0.771954 40 41 tcp 1064 ------- 33 32.0 41.32 1 144
r 0.774792 40 41 tcp 1064 ------- 26 25.0 41.25 2 131
r 0.777629 40 41 tcp 1064 ------- 34 33.0 41.33 1 146
r 0.780466 40 41 tcp 1064 ------- 27 26.0 41.26 2 133
r 0.783304 40 41 tcp 1064 ------- 35 34.0 41.34 1 148
r 0.786141 40 41 tcp 1064 ------- 28 27.0 41.27 2 135
r 0.788978 40 41 tcp 1064 ------- 36 35.0 41.35 1 150
r 0.791816 40 41 tcp 1064 ------- 29 28.0 41.28 2 137
r 0.794653 40 41 tcp 1064 ------- 37 36.0 41.36 1 152
r 0.79749 40 41 tcp 1064 ------- 30 29.0 41.29 2 139
r 0.800328 40 41 tcp 1064 ------- 38 37.0 41.37 1 154
r 0.803165 40 41 tcp 1064 ------- 31 30.0 41.30 2 141
r 0.806002 40 41 tcp 1064 ------- 39 38.0 41.38 1 156
r 0.80884 40 41 tcp 1064 ------- 32 31.0 41.31 2 143
r 0.811677 40 41 tcp 1064 ------- 40 39.0 41.39 1 158
r 0.814514 40 41 tcp 1064 ------- 33 32.0 41.32 2 145
r 0.817352 40 41 tcp 1064 ------- 34 33.0 41.33 2 147
r 0.820189 40 41 tcp 1064 ------- 35 34.0 41.34 2 149
r 0.823026 40 41 tcp 1064 ------- 36 35.0 41.35 2 151
r 0.825864 40 41 tcp 1064 ------- 37 36.0 41.36 2 153
r 0.828701 40 41 tcp 1064 ------- 38 37.0 41.37 2 155
r 0.831538 40 41 tcp 1064 ------- 39 38.0 41.38 2 157
r 0.834376 40 41 tcp 1064 ------- 40 39.0 41.39 2 159
+ 0.911216 40 41 tcp 1064 ------- 1 0.0 41.0 3 231
- 0.911216 40 41 tcp 1064 ------- 1 0.0 41.0 3 231
+ 0.912068 40 41 tcp 1064 ------- 1 0.0 41.0 4 232
+ 0.914054 40 41 tcp 1064 ------- 2 1.0 41.1 3 234
- 0.914054 40 41 tcp 1064 ------- 1 0.0 41.0 4 232
+ 0.914905 40 41 tcp 1064 ------- 2 1.0 41.1 4 235
+ 0.916891 40 41 tcp 1064 ------- 3 2.0 41.2 3 237
- 0.916891 40 41 tcp 1064 ------- 2 1.0 41.1 3 234
+ 0.917742 40 41 tcp 1064 ------- 3 2.0 41.2 4 238
+ 0.919728 40 41 tcp 1064 ------- 4 3.0 41.3 3 240
- 0.919728 40 41 tcp 1064 ------- 2 1.0 41.1 4 235
+ 0.92058 40 41 tcp 1064 ------- 4 3.0 41.3 4 241
+ 0.922566 40 41 tcp 1064 ------- 5 4.0 41.4 3 243
- 0.922566 40 41 tcp 1064 ------- 3 2.0 41.2 3 237
+ 0.923417 40 41 tcp 1064 ------- 5 4.0 41.4 4 244
+ 0.925403 40 41 tcp 1064 ------- 6 5.0 41.5 3 246
- 0.925403 40 41 tcp 1064 ------- 3 2.0 41.2 4 238
+ 0.926254 40 41 tcp 1064 ------- 6 5.0 41.5 4 247
+ 0.92824 40 41 tcp 1064 ------- 7 6.0 41.6 3 249
- 0.92824 40 41 tcp 1064 ------- 4 3.0 41.3 3 240
+ 0.929092 40 41 tcp 1064 ------- 7 6.0 41.6 4 250
+ 0.931078 40 41 tcp 1064 ------- 8 7.0 41.7 3 252
- 0.931078 40 41 tcp 1064 ------- 4 3.0 41.3 4 241
+ 0.931929 40 41 tcp 1064 ------- 8 7.0 41.7 4 253
+ 0.933915 40 41 tcp 1064 ------- 1 0.0 41.0 5 255
- 0.933915 40 41 tcp 1064 ------- 5 4.0 41.4 3 243
+ 0.934766 40 41 tcp 1064 ------- 1 0.0 41.0 6 256
+ 0.936752 40 41 tcp 1064 ------- 9 8.0 41.8 3 258
- 0.936752 40 41 tcp 1064 ------- 5 4.0 41.4 4 244
+ 0.937604 40 41 tcp 1064 ------- 9 8.0 41.8 4 259
+ 0.93959 40 41 tcp 1064 ------- 2 1.0 41.1 5 260
- 0.93959 40 41 tcp 1064 ------- 6 5.0 41.5 3 246
+ 0.940441 40 41 tcp 1064 ------- 2 1.0 41.1 6 261
+ 0.942427 40 41 tcp 1064 ------- 10 9.0 41.9 3 262
- 0.942427 40 41 tcp 1064 ------- 6 5.0 41.5 4 247
+ 0.943278 40 41 tcp 1064 ------- 10 9.0 41.9 4 263
+ 0.945264 40 41 tcp 1064 ------- 3 2.0 41.2 5 264
- 0.945264 40 41 tcp 1064 ------- 7 6.0 41.6 3 249
+ 0.946116 40 41 tcp 1064 ------- 3 2.0 41.2 6 265
+ 0.948102 40 41 tcp 1064 ------- 11 10.0 41.10 3 266
- 0.948102 40 41 tcp 1064 ------- 7 6.0 41.6 4 250
+ 0.948953 40 41 tcp 1064 ------- 11 10.0 41.10 4 267
+ 0.950939 40 41 tcp 1064 ------- 4 3.0 41.3 5 268
- 0.950939 40 41 tcp 1064 ------- 8 7.0 41.7 3 252
+ 0.95179 40 41 tcp 1064 ------- 4 3.0 41.3 6 269
+ 0.953776 40 41 tcp 1064 ------- 12 11.0 41.11 3 270
- 0.953776 40 41 tcp 1064 ------- 8 7.0 41.7 4 253
+ 0.954628 40 41 tcp 1064 ------- 12 11.0 41.11 4 271
+ 0.956614 40 41 tcp 1064 ------- 5 4.0 41.4 5 272
- 0.956614 40 41 tcp 1064 ------- 1 0.0 41.0 5 255
+ 0.957465 40 41 tcp 1064 ------- 5 4.0 41.4 6 273
+ 0.959451 40 41 tcp 1064 ------- 13 12.0 41.12 3 274
- 0.959451 40 41 tcp 1064 ------- 1 0.0 41.0 6 256
+ 0.960302 40 41 tcp 1064 ------- 13 12.0 41.12 4 275
+ 0.962288 40 41 tcp 1064 ------- 6 5.0 41.5 5 276
- 0.962288 40 41 tcp 1064 ------- 9 8.0 41.8 3 258
+ 0.96314 40 41 tcp 1064 ------- 6 5.0 41.5 6 277
+ 0.965126 40 41 tcp 1064 ------- 14 13.0 41.13 3 278
- 0.965126 40 41 tcp 1064 ------- 9 8.0 41.8 4 259
+ 0.965977 40 41 tcp 1064 ------- 14 13.0 41.13 4 279
+ 0.967963 40 41 tcp 1064 ------- 7 6.0 41.6 5 280
- 0.967963 40 41 tcp 1064 ------- 2 1.0 41.1 5 260
+ 0.968814 40 41 tcp 1064 ------- 7 6.0 41.6 6 281
+ 0.9708 40 41 tcp 1064 ------- 15 14.0 41.14 3 282
- 0.9708 40 41 tcp 1064 ------- 2 1.0 41.1 6 261
+ 0.971652 40 41 tcp 1064 ------- 15 14.0 41.14 4 283
+ 0.973638 40 41 tcp 1064 ------- 8 7.0 41.7 5 284
- 0.973638 40 41 tcp 1064 ------- 10 9.0 41.9 3 262
+ 0.974489 40 41 tcp 1064 ------- 8 7.0 41.7 6 285
+ 0.976475 40 41 tcp 1064 ------- 16 15.0 41.15 3 286
- 0.976475 40 41 tcp 1064 ------- 10 9.0 41.9 4 263
+ 0.977326 40 41 tcp 1064 ------- 16 15.0 41.15 4 287
+ 0.979312 40 41 tcp 1064 ------- 9 8.0 41.8 5 288
- 0.979312 40 41 tcp 1064 ------- 3 2.0 41.2 5 264
+ 0.980164 40 41 tcp 1064 ------- 9 8.0 41.8 6 289
+ 0.98215 40 41 tcp 1064 ------- 17 16.0 41.16 3 290
- 0.98215 40 41 tcp 1064 ------- 3 2.0 41.2 6 265
+ 0.983001 40 41 tcp 1064 ------- 17 16.0 41.16 4 291
+ 0.984987 40 41 tcp 1064 ------- 10 9.0 41.9 5 292
- 0.984987 40 41 tcp 1064 ------- 11 10.0 41.10 3 266
+ 0.985838 40 41 tcp 1064 ------- 10 9.0 41.9 6 293
+ 0.987824 40 41 tcp 1064 ------- 18 17.0 41.17 3 294
- 0.987824 40 41 tcp 1064 ------- 11 10.0 41.10 4 267
+ 0.988676 40 41 tcp 1064 ------- 18 17.0 41.17 4 295
+ 0.990662 40 41 tcp 1064 ------- 11 10.0 41.10 5 296
- 0.990662 40 41 tcp 1064 ------- 4 3.0 41.3 5 268
+ 0.991513 40 41 tcp 1064 ------- 11 10.0 41.10 6 297
+ 0.993499 40 41 tcp 1064 ------- 19 18.0 41.18 3 298
- 0.993499 40 41 tcp 1064 ------- 4 3.0 41.3 6 269
+ 0.99435 40 41 tcp 1064 ------- 19 18.0 41.18 4 299
+ 0.996336 40 41 tcp 1064 ------- 12 11.0 41.11 5 300
- 0.996336 40 41 tcp 1064 ------- 12 11.0 41.11 3 270
+ 0.997188 40 41 tcp 1064 ------- 12 11.0 41.11 6 301
+ 0.999174 40 41 tcp 1064 ------- 20 19.0 41.19 3 302
- 0.999174 40 41 tcp 1064 ------- 12 11.0 41.11 4 271
+ 1.000025 40 41 tcp 1064 ------- 20 19.0 41.19 4 303
+ 1.002011 40 41 tcp 1064 ------- 13 12.0 41.12 5 304
- 1.002011 40 41 tcp 1064 ------- 5 4.0 41.4 5 272
+ 1.002862 40 41 tcp 1064 ------- 13 12.0 41.12 6 305
+ 1.004848 40 41 tcp 1064 ------- 21 20.0 41.20 3 306
- 1.004848 40 41 tcp 1064 ------- 5 4.0 41.4 6 273
+ 1.0057 40 41 tcp 1064 ------- 21 20.0 41.20 4 307
+ 1.007686 40 41 tcp 1064 ------- 14 13.0 41.13 5 308
- 1.007686 40 41 tcp 1064 ------- 13 12.0 41.12 3 274
+ 1.008537 40 41 tcp 1064 ------- 14 13.0 41.13 6 309
+ 1.010523 40 41 tcp 1064 ------- 22 21.0 41.21 3 310
- 1.010523 40 41 tcp 1064 ------- 13 12.0 41.12 4 275
+ 1.011374 40 41 tcp 1064 ------- 22 21.0 41.21 4 311
+ 1.01336 40 41 tcp 1064 ------- 15 14.0 41.14 5 312
- 1.01336 40 41 tcp 1064 ------- 6 5.0 41.5 5 276
r 1.014054 40 41 tcp 1064 ------- 1 0.0 41.0 3 231
+ 1.014212 40 41 tcp 1064 ------- 15 14.0 41.14 6 313
+ 1.016198 40 41 tcp 1064 ------- 23 22.0 41.22 3 314
- 1.016198 40 41 tcp 1064 ------- 6 5.0 41.5 6 277
r 1.016891 40 41 tcp 1064 ------- 1 0.0 41.0 4 232
+ 1.017049 40 41 tcp 1064 ------- 23 22.0 41.22 4 315
+ 1.019035 40 41 tcp 1064 ------- 16 15.0 41.15 5 316
- 1.019035 40 41 tcp 1064 ------- 14 13.0 41.13 3 278
r 1.019728 40 41 tcp 1064 ------- 2 1.0 41.1 3 234
+ 1.019886 40 41 tcp 1064 ------- 16 15.0 41.15 6 317
+ 1.021872 40 41 tcp 1064 ------- 24 23.0 41.23 3 318
- 1.021872 40 41 tcp 1064 ------- 14 13.0 41.13 4 279
r 1.022566 40 41 tcp 1064 ------- 2 1.0 41.1 4 235
+ 1.022724 40 41 tcp 1064 ------- 24 23.0 41.23 4 319
+ 1.02471 40 41 tcp 1064 ------- 17 16.0 41.16 5 320
- 1.02471 40 41 tcp 1064 ------- 7 6.0 41.6 5 280
r 1.025403 40 41 tcp 1064 ------- 3 2.0 41.2 3 237
+ 1.025561 40 41 tcp 1064 ------- 17 16.0 41.16 6 321
+ 1.027547 40 41 tcp 1064 ------- 25 24.0 41.24 3 322
- 1.027547 40 41 tcp 1064 ------- 7 6.0 41.6 6 281
r 1.02824 40 41 tcp 1064 ------- 3 2.0 41.2 4 238
+ 1.028398 40 41 tcp 1064 ------- 25 24.0 41.24 4 323
+ 1.030384 40 41 tcp 1064 ------- 18 17.0 41.17 5 324
- 1.030384 40 41 tcp 1064 ------- 15 14.0 41.14 3 282
r 1.031078 40 41 tcp 1064 ------- 4 3.0 41.3 3 240
+ 1.031236 40 41 tcp 1064 ------- 18 17.0 41.17 6 325
+ 1.033222 40 41 tcp 1064 ------- 26 25.0 41.25 3 326
- 1.033222 40 41 tcp 1064 ------- 15 14.0 41.14 4 283
r 1.033915 40 41 tcp 1064 ------- 4 3.0 41.3 4 241
+ 1.034073 40 41 tcp 1064 ------- 26 25.0 41.25 4 327
+ 1.036059 40 41 tcp 1064 ------- 19 18.0 41.18 5 328
- 1.036059 40 41 tcp 1064 ------- 8 7.0 41.7 5 284
r 1.036752 40 41 tcp 1064 ------- 5 4.0 41.4 3 243
+ 1.03691 40 41 tcp 1064 ------- 19 18.0 41.18 6 329
+ 1.038896 40 41 tcp 1064 ------- 27 26.0 41.26 3 330
- 1.038896 40 41 tcp 1064 ------- 8 7.0 41.7 6 285
r 1.03959 40 41 tcp 1064 ------- 5 4.0 41.4 4 244
+ 1.039748 40 41 tcp 1064 ------- 27 26.0 41.26 4 331
+ 1.041734 40 41 tcp 1064 ------- 20 19.0 41.19 5 332
- 1.041734 40 41 tcp 1064 ------- 16 15.0 41.15 3 286
r 1.042427 40 41 tcp 1064 ------- 6 5.0 41.5 3 246
+ 1.042585 40 41 tcp 1064 ------- 20 19.0 41.19 6 333
+ 1.044571 40 41 tcp 1064 ------- 28 27.0 41.27 3 334
- 1.044571 40 41 tcp 1064 ------- 16 15.0 41.15 4 287
r 1.045264 40 41 tcp 1064 ------- 6 5.0 41.5 4 247
+ 1.045422 40 41 tcp 1064 ------- 28 27.0 41.27 4 335
+ 1.047408 40 41 tcp 1064 ------- 21 20.0 41.20 5 336
- 1.047408 40 41 tcp 1064 ------- 9 8.0 41.8 5 288
r 1.048102 40 41 tcp 1064 ------- 7 6.0 41.6 3 249
+ 1.04826 40 41 tcp 1064 ------- 21 20.0 41.20 6 337
+ 1.050246 40 41 tcp 1064 ------- 29 28.0 41.28 3 338
- 1.050246 40 41 tcp 1064 ------- 9 8.0 41.8 6 289
r 1.050939 40 41 tcp 1064 ------- 7 6.0 41.6 4 250
+ 1.051097 40 41 tcp 1064 ------- 29 28.0 41.28 4 339
+ 1.053083 40 41 tcp 1064 ------- 22 21.0 41.21 5 340
- 1.053083 40 41 tcp 1064 ------- 17 16.0 41.16 3 290
r 1.053776 40 41 tcp 1064 ------- 8 7.0 41.7 3 252
+ 1.053934 40 41 tcp 1064 ------- 22 21.0 41.21 6 341
+ 1.05592 40 41 tcp 1064 ------- 30 29.0 41.29 3 342
- 1.05592 40 41 tcp 1064 ------- 17 16.0 41.16 4 291
r 1.056614 40 41 tcp 1064 ------- 8 7.0 41.7 4 253
+ 1.056772 40 41 tcp 1064 ------- 30 29.0 41.29 4 343
+ 1.058758 40 41 tcp 1064 ------- 23 22.0 41.22 5 344
- 1.058758 40 41 tcp 1064 ------- 10 9.0 41.9 5 292
r 1.059451 40 41 tcp 1064 ------- 1 0.0 41.0 5 255
+ 1.059609 40 41 tcp 1064 ------- 23 22.0 41.22 6 345
+ 1.061595 40 41 tcp 1064 ------- 31 30.0 41.30 3 346
- 1.061595 40 41 tcp 1064 ------- 10 9.0 41.9 6 293
r 1.062288 40 41 tcp 1064 ------- 1 0.0 41.0 6 256
+ 1.062446 40 41 tcp 1064 ------- 31 30.0 41.30 4 347
+ 1.064432 40 41 tcp 1064 ------- 24 23.0 41.23 5 348
- 1.064432 40 41 tcp 1064 ------- 18 17.0 41.17 3 294
r 1.065126 40 41 tcp 1064 ------- 9 8.0 41.8 3 258
+ 1.065284 40 41 tcp 1064 ------- 24 23.0 41.23 6 349
+ 1.06727 40 41 tcp 1064 ------- 32 31.0 41.31 3 350
- 1.06727 40 41 tcp 1064 ------- 18 17.0 41.17 4 295
r 1.067963 40 41 tcp 1064 ------- 9 8.0 41.8 4 259
+ 1.068121 40 41 tcp 1064 ------- 32 31.0 41.31 4 351
+ 1.070107 40 41 tcp 1064 ------- 25 24.0 41.24 5 352
- 1.070107 40 41 tcp 1064 ------- 11 10.0 41.10 5 296
r 1.0708 40 41 tcp 1064 ------- 2 1.0 41.1 5 260
+ 1.070958 40 41 tcp 1064 ------- 25 24.0 41.24 6 353
+ 1.072944 40 41 tcp 1064 ------- 33 32.0 41.32 3 354
- 1.072944 40 41 tcp 1064 ------- 11 10.0 41.10 6 297
r 1.073638 40 41 tcp 1064 ------- 2 1.0 41.1 6 261
+ 1.073796 40 41 tcp 1064 ------- 33 32.0 41.32 4 355
+ 1.075782 40 41 tcp 1064 ------- 26 25.0 41.25 5 356
- 1.075782 40 41 tcp 1064 ------- 19 18.0 41.18 3 298
r 1.076475 40 41 tcp 1064 ------- 10 9.0 41.9 3 262
+ 1.076633 40 41 tcp 1064 ------- 26 25.0 41.25 6 357
+ 1.078619 40 41 tcp 1064 ------- 34 33.0 41.33 3 358
- 1.078619 40 41 tcp 1064 ------- 19 18.0 41.18 4 299
r 1.079312 40 41 tcp 1064 ------- 10 9.0 41.9 4 263
+ 1.07947 40 41 tcp 1064 ------- 34 33.0 41.33 4 359
+ 1.081456 40 41 tcp 1064 ------- 27 26.0 41.26 5 360
- 1.081456 40 41 tcp 1064 ------- 12 11.0 41.11 5 300
r 1.08215 40 41 tcp 1064 ------- 3 2.0 41.2 5 264
+ 1.082308 40 41 tcp 1064 ------- 27 26.0 41.26 6 361
+ 1.084294 40 41 tcp 1064 ------- 35 34.0 41.34 3 362
- 1.084294 40 41 tcp 1064 ------- 12 11.0 41.11 6 301
r 1.084987 40 41 tcp 1064 ------- 3 2.0 41.2 6 265
+ 1.085145 40 41 tcp 1064 ------- 35 34.0 41.34 4 363
+ 1.087131 40 41 tcp 1064 ------- 28 27.0 41.27 5 364
- 1.087131 40 41 tcp 1064 ------- 20 19.0 41.19 3 302
r 1.087824 40 41 tcp 1064 ------- 11 10.0 41.10 3 266